# vtk DataFile Version 2.0
Unstructured Grid
ASCII
DATASET UNSTRUCTURED_GRID
POINTS 18135 double
105 15 -4
106 15 -4
107 15 -4
108 15 -4
109 15 -4
110 15 -4
111 15 -4
112 15 -4
113 15 -4
114 15 -4
115 15 -4
116 15 -4
117 15 -4
118 15 -4
119 15 -4
120 15 -4
121 15 -4
122 15 -4
123 15 -4
124 15 -4
125 15 -4
126 15 -4
127 15 -4
128 15 -4
129 15 -4
130 15 -4
131 15 -4
132 15 -4
133 15 -4
134 15 -4
135 15 -4
135 20 -4
135 25 -4
135 30 -4
135 35 -4
135 40 -4
135 45 -4
135 50 -4
135 55 -4
135 60 -4
135 65 -4
135 70 -4
135 75 -4
135 80 -4
135 85 -4
135 90 -4
135 95 -4
135 100 -4
135 105 -4
135 110 -4
135 115 -4
135 120 -4
135 125 -4
135 130 -4
135 135 -4
135 140 -4
135 145 -4
135 150 -4
135 155 -4
135 160 -4
135 165 -4
135 170 -4
135 175 -4
135 180 -4
135 185 -4
135 190 -4
135 195 -4
135 200 -4
135 205 -4
135 210 -4
135 215 -4
135 220 -4
135 225 -4
135 230 -4
135 235 -4
135 240 -4
135 245 -4
135 250 -4
135 255 -4
135 260 -4
135 265 -4
135 270 -4
135 275 -4
135 280 -4
135 285 -4
135 290 -4
135 295 -4
135 300 -4
135 305 -4
135 310 -4
135 315 -4
135 320 -4
135 325 -4
135 330 -4
135 335 -4
134 335 -4
133 335 -4
132 335 -4
131 335 -4
130 335 -4
129 335 -4
128 335 -4
127 335 -4
126 335 -4
125 335 -4
124 335 -4
123 335 -4
122 335 -4
121 335 -4
120 335 -4
119 335 -4
118 335 -4
117 335 -4
116 335 -4
115 335 -4
114 335 -4
113 335 -4
112 335 -4
111 335 -4
110 335 -4
109 335 -4
108 335 -4
107 335 -4
106 335 -4
105 335 -4
105 330 -4
105 325 -4
105 320 -4
105 315 -4
105 310 -4
105 305 -4
105 300 -4
105 295 -4
105 290 -4
105 285 -4
105 280 -4
105 275 -4
105 270 -4
105 265 -4
105 260 -4
105 255 -4
105 250 -4
105 245 -4
105 240 -4
105 235 -4
105 230 -4
105 225 -4
105 220 -4
105 215 -4
105 210 -4
105 205 -4
105 200 -4
105 195 -4
105 190 -4
105 185 -4
105 180 -4
105 175 -4
105 170 -4
105 165 -4
105 160 -4
105 155 -4
105 150 -4
105 145 -4
105 140 -4
105 135 -4
105 130 -4
105 125 -4
105 120 -4
105 115 -4
105 110 -4
105 105 -4
105 100 -4
105 95 -4
105 90 -4
105 85 -4
105 80 -4
105 75 -4
105 70 -4
105 65 -4
105 60 -4
105 55 -4
105 50 -4
105 45 -4
105 40 -4
105 35 -4
105 30 -4
105 25 -4
105 20 -4
105 15 -3.5
106 15 -3.5
107 15 -3.5
108 15 -3.5
109 15 -3.5
110 15 -3.5
111 15 -3.5
112 15 -3.5
113 15 -3.5
114 15 -3.5
115 15 -3.5
116 15 -3.5
117 15 -3.5
118 15 -3.5
119 15 -3.5
120 15 -3.5
121 15 -3.5
122 15 -3.5
123 15 -3.5
124 15 -3.5
125 15 -3.5
126 15 -3.5
127 15 -3.5
128 15 -3.5
129 15 -3.5
130 15 -3.5
131 15 -3.5
132 15 -3.5
133 15 -3.5
134 15 -3.5
135 15 -3.5
135 20 -3.5
135 25 -3.5
135 30 -3.5
135 35 -3.5
135 40 -3.5
135 45 -3.5
135 50 -3.5
135 55 -3.5
135 60 -3.5
135 65 -3.5
135 70 -3.5
135 75 -3.5
135 80 -3.5
135 85 -3.5
135 90 -3.5
135 95 -3.5
135 100 -3.5
135 105 -3.5
135 110 -3.5
135 115 -3.5
135 120 -3.5
135 125 -3.5
135 130 -3.5
135 135 -3.5
135 140 -3.5
135 145 -3.5
135 150 -3.5
135 155 -3.5
135 160 -3.5
135 165 -3.5
135 170 -3.5
135 175 -3.5
135 180 -3.5
135 185 -3.5
135 190 -3.5
135 195 -3.5
135 200 -3.5
135 205 -3.5
135 210 -3.5
135 215 -3.5
135 220 -3.5
135 225 -3.5
135 230 -3.5
135 235 -3.5
135 240 -3.5
135 245 -3.5
135 250 -3.5
135 255 -3.5
135 260 -3.5
135 265 -3.5
135 270 -3.5
135 275 -3.5
135 280 -3.5
135 285 -3.5
135 290 -3.5
135 295 -3.5
135 300 -3.5
135 305 -3.5
135 310 -3.5
135 315 -3.5
135 320 -3.5
135 325 -3.5
135 330 -3.5
135 335 -3.5
134 335 -3.5
133 335 -3.5
132 335 -3.5
131 335 -3.5
130 335 -3.5
129 335 -3.5
128 335 -3.5
127 335 -3.5
126 335 -3.5
125 335 -3.5
124 335 -3.5
123 335 -3.5
122 335 -3.5
121 335 -3.5
120 335 -3.5
119 335 -3.5
118 335 -3.5
117 335 -3.5
116 335 -3.5
115 335 -3.5
114 335 -3.5
113 335 -3.5
112 335 -3.5
111 335 -3.5
110 335 -3.5
109 335 -3.5
108 335 -3.5
107 335 -3.5
106 335 -3.5
105 335 -3.5
105 330 -3.5
105 325 -3.5
105 320 -3.5
105 315 -3.5
105 310 -3.5
105 305 -3.5
105 300 -3.5
105 295 -3.5
105 290 -3.5
105 285 -3.5
105 280 -3.5
105 275 -3.5
105 270 -3.5
105 265 -3.5
105 260 -3.5
105 255 -3.5
105 250 -3.5
105 245 -3.5
105 240 -3.5
105 235 -3.5
105 230 -3.5
105 225 -3.5
105 220 -3.5
105 215 -3.5
105 210 -3.5
105 205 -3.5
105 200 -3.5
105 195 -3.5
105 190 -3.5
105 185 -3.5
105 180 -3.5
105 175 -3.5
105 170 -3.5
105 165 -3.5
105 160 -3.5
105 155 -3.5
105 150 -3.5
105 145 -3.5
105 140 -3.5
105 135 -3.5
105 130 -3.5
105 125 -3.5
105 120 -3.5
105 115 -3.5
105 110 -3.5
105 105 -3.5
105 100 -3.5
105 95 -3.5
105 90 -3.5
105 85 -3.5
105 80 -3.5
105 75 -3.5
105 70 -3.5
105 65 -3.5
105 60 -3.5
105 55 -3.5
105 50 -3.5
105 45 -3.5
105 40 -3.5
105 35 -3.5
105 30 -3.5
105 25 -3.5
105 20 -3.5
105 15 -3
106 15 -3
107 15 -3
108 15 -3
109 15 -3
110 15 -3
111 15 -3
112 15 -3
113 15 -3
114 15 -3
115 15 -3
116 15 -3
117 15 -3
118 15 -3
119 15 -3
120 15 -3
121 15 -3
122 15 -3
123 15 -3
124 15 -3
125 15 -3
126 15 -3
127 15 -3
128 15 -3
129 15 -3
130 15 -3
131 15 -3
132 15 -3
133 15 -3
134 15 -3
135 15 -3
135 20 -3
135 25 -3
135 30 -3
135 35 -3
135 40 -3
135 45 -3
135 50 -3
135 55 -3
135 60 -3
135 65 -3
135 70 -3
135 75 -3
135 80 -3
135 85 -3
135 90 -3
135 95 -3
135 100 -3
135 105 -3
135 110 -3
135 115 -3
135 120 -3
135 125 -3
135 130 -3
135 135 -3
135 140 -3
135 145 -3
135 150 -3
135 155 -3
135 160 -3
135 165 -3
135 170 -3
135 175 -3
135 180 -3
135 185 -3
135 190 -3
135 195 -3
135 200 -3
135 205 -3
135 210 -3
135 215 -3
135 220 -3
135 225 -3
135 230 -3
135 235 -3
135 240 -3
135 245 -3
135 250 -3
135 255 -3
135 260 -3
135 265 -3
135 270 -3
135 275 -3
135 280 -3
135 285 -3
135 290 -3
135 295 -3
135 300 -3
135 305 -3
135 310 -3
135 315 -3
135 320 -3
135 325 -3
135 330 -3
135 335 -3
134 335 -3
133 335 -3
132 335 -3
131 335 -3
130 335 -3
129 335 -3
128 335 -3
127 335 -3
126 335 -3
125 335 -3
124 335 -3
123 335 -3
122 335 -3
121 335 -3
120 335 -3
119 335 -3
118 335 -3
117 335 -3
116 335 -3
115 335 -3
114 335 -3
113 335 -3
112 335 -3
111 335 -3
110 335 -3
109 335 -3
108 335 -3
107 335 -3
106 335 -3
105 335 -3
105 330 -3
105 325 -3
105 320 -3
105 315 -3
105 310 -3
105 305 -3
105 300 -3
105 295 -3
105 290 -3
105 285 -3
105 280 -3
105 275 -3
105 270 -3
105 265 -3
105 260 -3
105 255 -3
105 250 -3
105 245 -3
105 240 -3
105 235 -3
105 230 -3
105 225 -3
105 220 -3
105 215 -3
105 210 -3
105 205 -3
105 200 -3
105 195 -3
105 190 -3
105 185 -3
105 180 -3
105 175 -3
105 170 -3
105 165 -3
105 160 -3
105 155 -3
105 150 -3
105 145 -3
105 140 -3
105 135 -3
105 130 -3
105 125 -3
105 120 -3
105 115 -3
105 110 -3
105 105 -3
105 100 -3
105 95 -3
105 90 -3
105 85 -3
105 80 -3
105 75 -3
105 70 -3
105 65 -3
105 60 -3
105 55 -3
105 50 -3
105 45 -3
105 40 -3
105 35 -3
105 30 -3
105 25 -3
105 20 -3
105 15 -2.5
106 15 -2.5
107 15 -2.5
108 15 -2.5
109 15 -2.5
110 15 -2.5
111 15 -2.5
112 15 -2.5
113 15 -2.5
114 15 -2.5
115 15 -2.5
116 15 -2.5
117 15 -2.5
118 15 -2.5
119 15 -2.5
120 15 -2.5
121 15 -2.5
122 15 -2.5
123 15 -2.5
124 15 -2.5
125 15 -2.5
126 15 -2.5
127 15 -2.5
128 15 -2.5
129 15 -2.5
130 15 -2.5
131 15 -2.5
132 15 -2.5
133 15 -2.5
134 15 -2.5
135 15 -2.5
135 20 -2.5
135 25 -2.5
135 30 -2.5
135 35 -2.5
135 40 -2.5
135 45 -2.5
135 50 -2.5
135 55 -2.5
135 60 -2.5
135 65 -2.5
135 70 -2.5
135 75 -2.5
135 80 -2.5
135 85 -2.5
135 90 -2.5
135 95 -2.5
135 100 -2.5
135 105 -2.5
135 110 -2.5
135 115 -2.5
135 120 -2.5
135 125 -2.5
135 130 -2.5
135 135 -2.5
135 140 -2.5
135 145 -2.5
135 150 -2.5
135 155 -2.5
135 160 -2.5
135 165 -2.5
135 170 -2.5
135 175 -2.5
135 180 -2.5
135 185 -2.5
135 190 -2.5
135 195 -2.5
135 200 -2.5
135 205 -2.5
135 210 -2.5
135 215 -2.5
135 220 -2.5
135 225 -2.5
135 230 -2.5
135 235 -2.5
135 240 -2.5
135 245 -2.5
135 250 -2.5
135 255 -2.5
135 260 -2.5
135 265 -2.5
135 270 -2.5
135 275 -2.5
135 280 -2.5
135 285 -2.5
135 290 -2.5
135 295 -2.5
135 300 -2.5
135 305 -2.5
135 310 -2.5
135 315 -2.5
135 320 -2.5
135 325 -2.5
135 330 -2.5
135 335 -2.5
134 335 -2.5
133 335 -2.5
132 335 -2.5
131 335 -2.5
130 335 -2.5
129 335 -2.5
128 335 -2.5
127 335 -2.5
126 335 -2.5
125 335 -2.5
124 335 -2.5
123 335 -2.5
122 335 -2.5
121 335 -2.5
120 335 -2.5
119 335 -2.5
118 335 -2.5
117 335 -2.5
116 335 -2.5
115 335 -2.5
114 335 -2.5
113 335 -2.5
112 335 -2.5
111 335 -2.5
110 335 -2.5
109 335 -2.5
108 335 -2.5
107 335 -2.5
106 335 -2.5
105 335 -2.5
105 330 -2.5
105 325 -2.5
105 320 -2.5
105 315 -2.5
105 310 -2.5
105 305 -2.5
105 300 -2.5
105 295 -2.5
105 290 -2.5
105 285 -2.5
105 280 -2.5
105 275 -2.5
105 270 -2.5
105 265 -2.5
105 260 -2.5
105 255 -2.5
105 250 -2.5
105 245 -2.5
105 240 -2.5
105 235 -2.5
105 230 -2.5
105 225 -2.5
105 220 -2.5
105 215 -2.5
105 210 -2.5
105 205 -2.5
105 200 -2.5
105 195 -2.5
105 190 -2.5
105 185 -2.5
105 180 -2.5
105 175 -2.5
105 170 -2.5
105 165 -2.5
105 160 -2.5
105 155 -2.5
105 150 -2.5
105 145 -2.5
105 140 -2.5
105 135 -2.5
105 130 -2.5
105 125 -2.5
105 120 -2.5
105 115 -2.5
105 110 -2.5
105 105 -2.5
105 100 -2.5
105 95 -2.5
105 90 -2.5
105 85 -2.5
105 80 -2.5
105 75 -2.5
105 70 -2.5
105 65 -2.5
105 60 -2.5
105 55 -2.5
105 50 -2.5
105 45 -2.5
105 40 -2.5
105 35 -2.5
105 30 -2.5
105 25 -2.5
105 20 -2.5
105 15 -2
106 15 -2
107 15 -2
108 15 -2
109 15 -2
110 15 -2
111 15 -2
112 15 -2
113 15 -2
114 15 -2
115 15 -2
116 15 -2
117 15 -2
118 15 -2
119 15 -2
120 15 -2
121 15 -2
122 15 -2
123 15 -2
124 15 -2
125 15 -2
126 15 -2
127 15 -2
128 15 -2
129 15 -2
130 15 -2
131 15 -2
132 15 -2
133 15 -2
134 15 -2
135 15 -2
135 20 -2
135 25 -2
135 30 -2
[...]
CELL_DATA 92160
SCALARS cell_scalars int 1
LOOKUP_TABLE default
101
102
103
104
105
106
107
108
109
110
111
112
113
114
115
116
117
118
119
120
121
122
123
124
125
126
127
128
129
130
131
132
133
134
135
136
137
138
139
140
141
142
143
144
145
146
147
148
149
150
151
152
153
154
155
156
157
158
159
160
161
162
163
164
165
166
167
168
169
170
171
172
173
174
175
176
177
178
179
180
181
182
183
184
185
186
187
188
189
190
191
192
193
194
195
196
197
198
199
200
201
202
203
204
205
206
207
208
209
150
210
211
212
213
214
215
216
217
218
219
220
221
222
223
224
225
226
227
228
229
230
231
232
233
234
235
236
237
238
239
240
241
242
243
244
245
246
247
248
249
250
251
252
253
254
255
256
257
258
259
260
261
262
109
263
264
265
266
267
268
269
270
271
272
273
274
275
276
277
278
279
280
281
282
283
284
285
286
287
288
289
290
291
292
293
294
295
296
297
298
299
300
301
302
303
304
305
306
307
308
309
310
311
312
313
314
315
316
317
318
319
320
321
322
323
324
325
326
303
327
328
329
330
331
332
333
334
335
336
337
338
339
340
341
342
343
344
345
346
347
348
349
350
289
351
352
353
354
355
356
357
358
359
360
327
361
362
363
364
365
366
367
368
369
370
371
372
373
374
375
376
377
378
379
380
381
382
383
384
385
386
387
388
389
344
390
391
392
393
394
395
396
397
398
399
400
401
402
403
404
405
406
407
408
409
410
411
412
413
414
415
416
417
418
223
419
420
421
422
423
424
425
426
427
428
429
430
431
432
433
434
435
436
437
438
439
440
441
442
443
444
445
446
447
448
449
450
451
260
452
453
454
455
456
457
458
459
460
461
462
463
464
465
466
467
390
229
462
468
469
470
471
472
473
474
475
476
477
478
479
480
481
482
483
484
485
486
487
488
489
490
491
492
493
494
495
496
497
498
499
500
501
502
503
504
400
505
506
507
508
509
510
511
512
513
514
515
516
517
518
519
520
521
522
523
524
525
526
527
528
529
530
531
532
533
534
535
536
537
538
539
540
541
542
543
544
545
546
547
548
549
550
551
503
552
553
554
555
556
557
558
559
560
561
562
563
564
565
566
567
568
569
570
571
572
573
574
575
576
577
376
578
579
580
581
582
583
584
585
586
587
588
589
590
591
592
593
594
595
596
597
598
599
600
331
601
602
238
603
604
605
606
607
608
609
150
610
611
242
612
613
614
615
616
617
618
619
620
621
622
623
624
625
626
627
628
629
630
631
632
633
634
635
636
637
638
639
640
624
641
642
643
644
645
646
647
648
649
650
651
652
653
654
655
656
657
658
659
660
661
662
663
664
665
666
667
668
669
670
671
672
673
674
675
676
677
678
679
680
681
682
683
684
685
686
687
688
198
689
690
691
692
693
694
695
696
104
697
698
699
700
701
702
703
704
705
706
707
708
709
710
711
712
713
714
715
716
717
606
718
719
720
721
722
723
724
725
726
727
728
729
730
731
732
733
734
735
736
737
738
739
740
741
742
743
744
745
746
747
748
749
750
751
752
753
754
755
756
757
758
759
760
761
762
763
764
765
766
767
768
769
770
771
772
773
774
775
776
777
778
779
780
781
782
783
784
785
786
787
788
789
790
791
792
793
794
795
796
797
798
799
800
801
802
803
804
805
806
807
808
809
810
811
812
813
814
815
816
289
817
818
819
820
821
822
823
824
332
825
826
827
714
828
829
830
831
832
833
834
835
836
837
838
839
125
840
622
841
842
843
844
845
846
847
848
849
850
851
852
853
854
855
107
856
857
731
858
859
860
861
862
863
864
865
854
866
867
868
869
145
870
871
872
366
873
874
875
876
877
878
879
880
881
882
246
883
884
228
885
886
887
888
889
890
891
892
893
894
895
896
897
898
899
900
901
902
903
904
905
906
907
908
909
910
911
912
913
914
915
797
916
917
918
157
919
920
921
922
923
924
925
926
927
928
929
930
931
932
933
934
680
935
936
937
938
939
940
941
942
943
492
944
945
946
947
948
949
950
951
952
953
954
955
956
592
957
958
959
960
961
348
493
962
450
963
964
965
966
967
968
969
970
971
972
973
974
975
976
977
978
979
980
981
982
983
161
984
985
986
389
987
988
989
990
991
992
993
994
995
996
997
998
999
1000
1001
1002
1003
1004
1005
1006
1007
1008
1009
1010
1011
396
1012
1013
1014
1015
393
1016
1017
1018
1019
1020
1021
1022
1023
1024
1025
1026
1027
1028
1029
1030
1031
521
1032
1033
1034
1035
1036
1037
1038
1039
1040
1041
1042
1043
1044
1045
1046
920
1047
1048
1049
1050
1051
1052
1053
1054
1055
1056
1057
1058
1059
1060
1061
1062
1063
1064
1065
1066
1067
1068
1069
854
1070
1071
1072
1073
1074
1075
1076
1077
1078
1079
1080
1081
1082
1083
1084
1085
1086
1087
535
1088
1089
1090
1091
1092
1093
1094
691
581
1095
922
1096
1097
1098
1099
1100
1101
1102
1103
1104
1105
1106
1107
1108
585
1109
1110
1111
1112
1113
1114
1115
1116
1117
1118
1119
1120
1121
1122
1123
1124
1125
1126
1127
1128
1129
1130
1131
1132
1133
1134
1135
1136
1137
1138
1139
1140
1141
1142
853
1143
941
1144
1145
1146
1147
1148
1149
1150
1151
1152
1153
1154
1155
1156
1157
1158
1159
1160
1161
1162
1163
1164
1165
1166
1167
1154
1168
1169
1170
1171
1172
1173
1174
1175
1176
1177
1178
1179
1180
1181
1182
1183
1184
1185
1186
1187
1188
1189
1190
1191
1192
414
445
1193
1194
1195
1196
555
1197
1198
1199
1200
1201
975
1202
1203
1204
1205
1206
1207
1208
1209
1210
1211
1212
1213
1214
1215
1216
1217
1218
1219
1001
1220
1221
1222
487
1223
1224
1225
1226
1227
1228
1229
1230
1231
343
1232
1233
1234
1235
1236
1237
1238
1239
1240
1241
1242
1243
672
1244
1245
1246
1247
1248
1249
1250
1251
1252
1253
1254
1255
1256
1257
1258
1259
1260
1261
1262
1263
1264
1265
1266
1267
1268
1269
1085
1270
1271
272
338
1272
1252
1273
1274
1275
1276
1277
1278
1279
1280
1281
1282
1283
1284
1285
1286
1287
1288
1289
1290
1291
1292
1293
1294
1295
1296
1297
1298
1299
1300
1301
339
1302
1303
1304
864
1305
1306
1307
1308
1309
1310
1311
1312
1313
1314
1315
1316
1296
1317
1318
1319
1320
1321
1322
1323
1324
1325
1326
1327
1328
1329
1330
1331
1332
1333
727
1334
1335
1336
1337
1338
1339
1340
1341
1342
264
1343
1334
1344
1345
1346
1347
1348
1349
1350
1351
1352
1353
415
1354
1355
1356
1357
1358
1359
1360
1361
1362
1363
1364
1365
1366
1367
1368
1369
1370
1371
1372
1373
1374
1375
1376
1377
1378
1379
1380
640
1373
1381
1382
1295
1383
1384
1350
1385
1386
1387
1388
1389
1390
746
1143
1391
1392
1393
1394
1395
441
1396
1397
1398
1399
1352
1400
1401
1402
1403
1404
1405
1406
1407
1408
1409
1410
1392
1411
1412
1413
1414
1415
1416
1417
1418
625
1419
772
1420
1421
1422
1423
1424
1425
1377
1426
1427
1400
757
1428
1429
749
1430
1431
1432
1433
1434
1435
1436
149
1437
1438
1439
1440
1441
1442
1443
1444
1445
1446
1414
1447
1448
1449
1450
1451
1452
1410
1453
1454
1455
772
1456
1457
1458
1459
723
728
1400
1460
1461
1462
1463
1464
1465
1466
1467
1468
1469
1470
1471
1472
1473
1456
1474
1475
1476
1477
587
624
1478
1479
1480
1481
1482
1483
1484
1485
1486
1487
1488
1489
1490
1491
1492
1493
1494
1495
1496
1497
1354
1498
1499
1439
1500
1501
1474
1502
1503
1504
1505
1506
754
1507
1508
1509
678
1510
1511
587
1512
1513
1514
1515
1516
739
1517
1419
1518
1519
1520
1521
1522
1523
1524
1501
1302
1525
1526
1527
1528
1529
1530
1531
1532
1533
1534
1535
1536
1537
1538
1539
1540
1541
1542
1543
1455
1544
1545
1546
1547
1548
1549
1550
1551
1552
1553
1554
1490
1418
1555
1556
1557
1558
1559
1560
1561
1562
1563
1564
1565
1566
832
1567
1554
1390
1568
1569
1570
1571
1572
1573
850
1574
1349
1557
1511
1575
1576
1467
1577
1578
1579
1580
1581
1582
296
1583
1531
1584
1585
1586
1587
1588
1589
1590
1591
1492
247
1592
1593
1514
1594
1595
1596
1597
1598
1599
1600
1601
1426
1602
418
1603
1604
1605
1593
1606
175
1607
1608
1343
1420
1609
345
1610
1611
1612
1613
1614
1615
759
1616
1617
1618
1619
175
1620
1621
708
1622
1623
1624
1625
1626
794
1627
1628
1562
1629
1630
1631
1632
1633
1634
1635
1636
1637
1638
1639
1640
1641
1642
1643
1644
1645
1646
1647
1648
1649
1650
1651
1652
613
1653
783
1654
290
1655
1656
1657
1658
1659
1660
1661
1415
1558
1662
1663
1664
1665
1666
1408
1667
805
1668
1669
1670
1671
1672
1673
1674
1675
1676
1677
1678
1679
1680
1681
1682
1683
1684
892
1685
1686
1687
1688
1689
1690
1691
1692
1693
1694
1695
814
1696
1697
1698
1699
1700
1701
1486
302
1702
1703
1704
859
905
1705
1706
1707
1708
1709
1710
1236
1711
1712
105
478
1713
629
1714
1715
1705
262
1716
1717
1718
435
1719
1720
1721
1722
1723
1724
1725
1720
1349
1726
1727
1290
1728
1729
1730
1731
1732
1733
1384
1734
1735
1736
1737
1738
1739
1740
1741
1742
1743
1744
1745
1746
1747
1748
1749
1750
1751
1752
1753
1754
1755
1756
1757
1758
1759
1760
297
1761
639
1762
1763
1764
1765
1766
343
1767
1768
1769
1770
1771
1772
1773
1774
1775
1776
1777
1353
1778
820
1779
1095
1780
1781
1782
1783
1784
1785
1786
1787
1788
1763
1789
1790
1791
1318
1792
1793
1794
1795
699
1404
1796
1797
1798
250
1799
1800
1801
1802
1803
644
1804
1805
1806
1807
1808
1809
1810
1811
1812
1813
1814
1815
764
1816
1817
1818
1819
1820
1821
1822
863
1823
1824
1825
1826
1827
1828
1829
1830
1831
1832
1833
1834
1835
1836
1837
297
1838
1839
1840
1578
699
1338
1763
1841
1842
1843
1844
1845
1846
1847
1848
1849
1850
1851
901
1852
1853
1854
1855
1856
1857
1858
1859
1860
1861
1862
1863
1864
1865
1866
1867
1868
1869
1870
1871
1872
1873
1350
1874
194
1875
1876
1809
1877
1273
1309
1878
1485
1879
1880
1750
1881
1882
1883
1780
1884
1885
1886
1887
1459
1322
1888
1889
1890
1074
1891
1892
1893
1894
1895
742
1896
1305
1897
1898
1899
1900
1901
648
1902
1903
1866
1904
620
1905
1906
1907
1908
1909
1910
1911
1912
1913
1914
1915
1916
1917
257
1916
1918
1919
1505
1920
1862
1921
1922
650
1923
1924
1925
1926
1927
1928
1929
1930
1931
1879
1932
1933
1934
1935
1936
1937
1938
1939
303
1515
1940
1598
1941
1942
1424
1943
1944
1945
714
1946
1947
1443
1948
1949
1904
1950
1951
1952
1953
1954
278
435
1805
1955
1956
1957
1958
1959
1960
1961
371
1962
1963
1964
1965
1043
1966
1967
1968
1969
1970
1971
1972
1973
1585
301
1974
1975
1976
1977
1978
1979
276
1980
1981
1982
1983
1984
1985
1986
1987
1988
1989
1990
366
1991
1992
1993
1994
1995
1318
1996
734
1997
1998
1005
1999
2000
1863
2001
2002
1905
2003
2004
1859
2005
2006
2007
2008
2009
2010
2011
2012
2013
1923
2014
2015
2016
2017
1685
2018
2019
1021
610
2020
2021
2022
2023
2024
2025
2026
565
2027
1962
2028
2029
2030
2031
2032
2033
2034
2035
2036
2037
2038
2039
2040
2041
2042
2043
2044
2045
2046
2047
2048
2049
2028
703
2050
2051
2052
2038
2053
1606
435
2054
2055
2056
2057
1598
2058
2059
1901
2060
2061
1295
2062
200
2063
2064
2065
2066
508
820
1359
2067
126
1940
2068
1611
2069
2070
2071
1985
2072
2073
2074
1933
249
2075
2076
1259
2077
2078
2079
2080
2081
2082
2083
1837
2084
2085
2086
2087
833
2088
2089
2090
1824
1511
1925
2091
1429
2092
2093
2094
1353
2095
1283
2096
1851
2097
2098
2099
2100
2101
2102
2103
1930
2104
2105
2106
2070
2107
2108
2109
2110
2111
2112
2113
2114
2115
2116
1773
2117
2118
437
2119
2047
2120
2121
2122
2018
2123
2124
2125
2052
2126
2127
2128
2129
2130
2131
2132
1780
2133
208
2134
2135
2136
281
2137
2138
2139
1799
1967
2140
2134
2141
2142
2143
2144
2145
2146
206
2147
315
1962
2148
2149
1776
1344
2150
454
2151
2152
610
1978
2153
2154
2155
2156
2157
2158
2159
2160
1885
2161
2162
2163
2164
2165
2166
2167
536
2168
2169
188
2170
2171
2172
382
2173
2174
2175
2176
2177
643
2178
2179
2180
2181
2182
2183
2184
2185
2186
710
2187
2188
2189
2190
1268
2191
2192
2193
2194
2195
2196
2197
2198
2199
2200
2201
2202
1214
2203
384
2204
2205
2206
490
2207
1097
2208
2209
2210
2211
2212
1296
2213
2214
2215
2216
2217
2218
2219
2220
2221
2222
2223
651
2224
418
2225
2226
554
2227
2228
2229
2230
2137
2231
2232
2233
2234
2235
2236
2237
2238
2239
2240
651
1297
2241
2242
2243
2244
169
2245
2246
2247
2248
2249
2250
2251
1955
2167
2252
2253
2254
2255
2256
2257
2258
2259
2260
2261
2262
2263
2264
2265
927
2266
2267
2268
2269
2270
2271
2272
2273
2274
2275
380
2276
2277
2278
2279
2280
2281
2282
2211
2283
2284
338
2285
1053
2286
2287
2288
2289
2290
2291
2292
2293
2294
2295
2296
2297
2298
2299
2300
2301
2302
2303
1110
2304
2305
2306
2307
2308
1186
2309
2310
2311
2312
1190
2313
2314
665
2315
2316
2317
194
1887
2318
2319
2320
2321
2322
2323
1054
2324
2325
2326
2327
2328
2329
2330
928
2331
2332
2333
2334
2335
967
1104
2336
2337
2338
2318
1868
389
2339
2340
2341
2342
2343
426
317
204
2344
2345
484
1229
2346
2347
2348
2349
2350
1193
2351
2352
2353
467
2354
933
2355
2356
2357
239
2358
2359
2360
2361
2362
1955
2363
395
2364
2365
2366
2367
2368
2369
2370
2371
2372
2373
2374
2375
1233
2376
2377
2346
2378
2379
2380
2381
2382
2383
2384
2385
2386
2387
2388
2389
2390
2391
2392
2393
2394
2395
2396
2397
2398
2399
2400
2401
2402
2403
2404
2405
2406
2407
2408
393
2409
1188
2410
2411
2412
2413
2414
2415
2416
2417
1016
2418
2419
2420
2367
2421
2422
2423
2424
2425
2426
2427
2428
2429
546
2430
392
2431
2432
1206
2433
2434
2435
2436
2437
2438
2439
2372
2440
2441
928
2442
2443
2444
2445
2314
2446
2447
2448
2449
441
2450
2451
2452
1208
2453
2454
2455
2456
944
2457
2458
2459
2460
2134
2461
2316
2462
2463
2464
1120
2465
406
2466
2467
2468
2469
2175
2470
501
2471
2472
274
2473
2474
2475
979
2476
2477
2478
2479
242
2480
1046
2202
2481
2482
2483
2484
2216
2485
2486
2407
2487
2488
2489
2490
2491
2492
2493
2262
2494
2495
467
2496
2497
2498
2499
2500
2501
2502
2503
2504
2505
559
2506
1177
2507
369
406
2508
2509
2424
2434
1030
2510
2511
2512
2513
2431
2514
2515
255
2516
2517
2518
2519
2520
2521
2522
2523
1099
2524
2175
2525
2526
2527
1120
406
2528
2529
2530
2528
2531
2532
2533
2534
2535
2536
2537
2538
2432
2539
2540
2541
2542
2543
2544
2545
2546
2499
527
2547
1012
967
2548
2549
955
2550
2551
527
2552
485
2553
2554
2555
2556
2557
2513
2558
2559
2560
2538
2561
2562
2563
2564
2486
2565
2566
153
2567
2568
2569
2570
2571
2407
2407
2572
2573
2471
2574
2575
2497
501
2566
2576
2577
2578
2579
2580
2581
2469
2582
2583
2584
2514
2585
2586
2587
2221
2463
2588
2589
2590
2433
2591
2592
1994
2593
490
2594
2595
2494
1209
410
153
2325
2596
2597
2598
2599
569
941
207
2600
2601
2602
2603
2604
2605
2606
2607
2608
2527
396
2561
2609
2610
2446
2596
2611
2494
2532
2594
2550
2612
2613
2614
2564
2615
484
497
2616
2617
1121
2618
2619
2620
297
2621
2622
2611
2623
2624
2625
419
2626
2627
2533
2628
2629
2624
2630
2631
2424
2632
2633
2403
2367
2612
419
2388
2634
2635
2636
2637
361
978
2638
1206
2639
1041
2640
2641
2432
2642
2643
2644
2645
2646
2647
2219
2648
2649
2650
2651
2652
2653
2654
2655
2656
2657
2384
2658
2659
2660
2661
2662
1117
2486
2663
2664
2665
2666
2667
2668
2669
397
2670
2671
2672
2424
2673
2674
2675
2377
2676
2677
2678
2679
2680
2681
2219
1007
2682
1063
2683
2684
2685
2686
547
2687
2688
2418
2689
2690
2691
2692
2693
2694
142
2695
2696
2697
274
599
2698
2699
2700
2701
2702
2703
2704
2432
2418
2705
516
2706
2707
2410
2583
2708
2709
2710
2711
2712
2713
2714
2715
2716
2717
2718
573
745
2719
2720
1049
1955
2721
2180
2722
2723
2694
2724
2725
2201
2726
2727
2728
2729
958
2730
601
2731
2732
2733
2734
518
2735
2736
2689
2737
2738
2301
2462
2739
2740
2741
1313
408
2742
2743
2744
2745
2746
2747
2407
429
2420
2748
2375
2749
2750
1312
2751
2397
274
2752
2753
2754
2755
2756
2559
2757
2758
2755
2759
2760
2761
1033
2762
1110
2763
2764
2765
1036
2766
2767
2768
1229
2371
2769
152
2770
2771
2772
1278
2773
293
582
343
2774
2191
2775
969
2776
1149
2777
2778
2779
2780
2781
2272
2272
2782
2783
2784
2785
2786
2787
697
2788
2789
2790
411
2791
2792
2793
2794
2795
593
2796
2797
2798
2799
2800
2801
2802
2803
934
2804
1316
1292
1765
1754
697
2805
2806
2807
2808
2809
2810
2811
2812
2813
2242
2814
2815
2816
2817
974
343
390
157
2818
2819
2342
1698
2820
2821
2822
2823
1757
2824
2797
2825
2826
2827
336
382
2828
2829
983
2830
2831
2191
2104
2832
2833
2834
2835
2836
2837
2325
2741
2838
2839
2840
2841
2242
308
1796
2842
2843
2034
2628
2844
2731
2845
2846
2768
1802
2847
2416
2848
2849
2850
465
2691
2167
2851
2852
2853
1757
2854
2855
2856
2857
2858
2177
2859
2249
308
2185
2860
2861
2862
596
2749
110
2863
2846
2492
308
2864
604
2865
2866
2867
2861
501
2868
2869
2870
2871
612
2872
2873
2826
2874
1954
2875
2876
2877
2878
2202
2879
2880
2881
2859
491
2882
1228
2883
2171
679
2720
2884
2885
2886
457
2887
2888
2889
2890
1043
609
2891
2892
937
2893
2894
2895
2896
2133
2897
2898
2899
2900
2901
2902
1342
2903
2904
2905
2906
2907
327
2908
2909
2910
2911
2129
2912
2913
2914
2674
2915
2916
2184
2917
2918
129
2919
2920
2921
2799
219
2922
2923
2924
2925
2926
488
2927
2871
2928
2929
2887
2930
807
2931
2932
2857
2933
518
2891
2934
2935
2828
2936
2937
2871
2217
242
2938
2939
2940
2689
2941
2942
2943
2944
2945
2946
2947
2948
2302
2949
2950
2951
2952
235
2953
2937
2831
1186
2954
2955
2956
2957
235
2958
1326
2959
2960
2961
2962
2963
2964
1308
2888
301
2828
336
2965
2457
2966
600
2967
188
2968
2969
2970
2971
2972
2973
2974
2975
2976
2977
2978
2975
2738
2979
2884
2980
2981
2982
2185
2983
2984
2985
2986
2987
2988
2736
2989
2990
2991
2992
2712
2993
2994
2995
2996
2797
1229
2997
2998
2999
1240
3000
3001
3002
3003
3004
3005
2274
3006
3007
2187
3008
3009