# vtk DataFile Version 2.0
Unstructured Grid
ASCII
DATASET UNSTRUCTURED_GRID
POINTS 12393 double
-4 -20 -4
-3.5 -20 -4
-3 -20 -4
-2.5 -20 -4
-2 -20 -4
-1.5 -20 -4
-1 -20 -4
-0.5 -20 -4
0 -20 -4
0.5 -20 -4
1 -20 -4
1.5 -20 -4
2 -20 -4
2.5 -20 -4
3 -20 -4
3.5 -20 -4
4 -20 -4
4 -19.5 -4
4 -19 -4
4 -18.5 -4
4 -18 -4
4 -17.5 -4
4 -17 -4
4 -16.5 -4
4 -16 -4
4 -15.5 -4
4 -15 -4
4 -14.5 -4
4 -14 -4
4 -13.5 -4
4 -13 -4
4 -12.5 -4
4 -12 -4
4 -11.5 -4
4 -11 -4
4 -10.5 -4
4 -10 -4
4 -9.5 -4
4 -9 -4
4 -8.5 -4
4 -8 -4
4 -7.5 -4
4 -7 -4
4 -6.5 -4
4 -6 -4
4 -5.5 -4
4 -5 -4
4 -4.5 -4
4 -4 -4
4 -3.5 -4
4 -3 -4
4 -2.5 -4
4 -2 -4
4 -1.5 -4
4 -1 -4
4 -0.5 -4
4 0 -4
4 0.5 -4
4 1 -4
4 1.5 -4
4 2 -4
4 2.5 -4
4 3 -4
4 3.5 -4
4 4 -4
4 4.5 -4
4 5 -4
4 5.5 -4
4 6 -4
4 6.5 -4
4 7 -4
4 7.5 -4
4 8 -4
4 8.5 -4
4 9 -4
4 9.5 -4
4 10 -4
4 10.5 -4
4 11 -4
4 11.5 -4
4 12 -4
4 12.5 -4
4 13 -4
4 13.5 -4
4 14 -4
4 14.5 -4
4 15 -4
4 15.5 -4
4 16 -4
4 16.5 -4
4 17 -4
4 17.5 -4
4 18 -4
4 18.5 -4
4 19 -4
4 19.5 -4
4 20 -4
3.5 20 -4
3 20 -4
2.5 20 -4
2 20 -4
1.5 20 -4
1 20 -4
0.5 20 -4
0 20 -4
-0.5 20 -4
-1 20 -4
-1.5 20 -4
-2 20 -4
-2.5 20 -4
-3 20 -4
-3.5 20 -4
-4 20 -4
-4 19.5 -4
-4 19 -4
-4 18.5 -4
-4 18 -4
-4 17.5 -4
-4 17 -4
-4 16.5 -4
-4 16 -4
-4 15.5 -4
-4 15 -4
-4 14.5 -4
-4 14 -4
-4 13.5 -4
-4 13 -4
-4 12.5 -4
-4 12 -4
-4 11.5 -4
-4 11 -4
-4 10.5 -4
-4 10 -4
-4 9.5 -4
-4 9 -4
-4 8.5 -4
-4 8 -4
-4 7.5 -4
-4 7 -4
-4 6.5 -4
-4 6 -4
-4 5.5 -4
-4 5 -4
-4 4.5 -4
-4 4 -4
-4 3.5 -4
-4 3 -4
-4 2.5 -4
-4 2 -4
-4 1.5 -4
-4 1 -4
-4 0.5 -4
-4 0 -4
-4 -0.5 -4
-4 -1 -4
-4 -1.5 -4
-4 -2 -4
-4 -2.5 -4
-4 -3 -4
-4 -3.5 -4
-4 -4 -4
-4 -4.5 -4
-4 -5 -4
-4 -5.5 -4
-4 -6 -4
-4 -6.5 -4
-4 -7 -4
-4 -7.5 -4
-4 -8 -4
-4 -8.5 -4
-4 -9 -4
-4 -9.5 -4
-4 -10 -4
-4 -10.5 -4
-4 -11 -4
-4 -11.5 -4
-4 -12 -4
-4 -12.5 -4
-4 -13 -4
-4 -13.5 -4
-4 -14 -4
-4 -14.5 -4
-4 -15 -4
-4 -15.5 -4
-4 -16 -4
-4 -16.5 -4
-4 -17 -4
-4 -17.5 -4
-4 -18 -4
-4 -18.5 -4
-4 -19 -4
-4 -19.5 -4
-4 -20 -3.5
-3.5 -20 -3.5
-3 -20 -3.5
-2.5 -20 -3.5
-2 -20 -3.5
-1.5 -20 -3.5
-1 -20 -3.5
-0.5 -20 -3.5
0 -20 -3.5
0.5 -20 -3.5
1 -20 -3.5
1.5 -20 -3.5
2 -20 -3.5
2.5 -20 -3.5
3 -20 -3.5
3.5 -20 -3.5
4 -20 -3.5
4 -19.5 -3.5
4 -19 -3.5
4 -18.5 -3.5
4 -18 -3.5
4 -17.5 -3.5
4 -17 -3.5
4 -16.5 -3.5
4 -16 -3.5
4 -15.5 -3.5
4 -15 -3.5
4 -14.5 -3.5
4 -14 -3.5
4 -13.5 -3.5
4 -13 -3.5
4 -12.5 -3.5
4 -12 -3.5
4 -11.5 -3.5
4 -11 -3.5
4 -10.5 -3.5
4 -10 -3.5
4 -9.5 -3.5
4 -9 -3.5
4 -8.5 -3.5
4 -8 -3.5
4 -7.5 -3.5
4 -7 -3.5
4 -6.5 -3.5
4 -6 -3.5
4 -5.5 -3.5
4 -5 -3.5
4 -4.5 -3.5
4 -4 -3.5
4 -3.5 -3.5
4 -3 -3.5
4 -2.5 -3.5
4 -2 -3.5
4 -1.5 -3.5
4 -1 -3.5
4 -0.5 -3.5
4 0 -3.5
4 0.5 -3.5
4 1 -3.5
4 1.5 -3.5
4 2 -3.5
4 2.5 -3.5
4 3 -3.5
4 3.5 -3.5
4 4 -3.5
4 4.5 -3.5
4 5 -3.5
4 5.5 -3.5
4 6 -3.5
4 6.5 -3.5
4 7 -3.5
4 7.5 -3.5
4 8 -3.5
4 8.5 -3.5
4 9 -3.5
4 9.5 -3.5
4 10 -3.5
4 10.5 -3.5
4 11 -3.5
4 11.5 -3.5
4 12 -3.5
4 12.5 -3.5
4 13 -3.5
4 13.5 -3.5
4 14 -3.5
4 14.5 -3.5
4 15 -3.5
4 15.5 -3.5
4 16 -3.5
4 16.5 -3.5
4 17 -3.5
4 17.5 -3.5
4 18 -3.5
4 18.5 -3.5
4 19 -3.5
4 19.5 -3.5
4 20 -3.5
3.5 20 -3.5
3 20 -3.5
2.5 20 -3.5
2 20 -3.5
1.5 20 -3.5
1 20 -3.5
0.5 20 -3.5
0 20 -3.5
-0.5 20 -3.5
-1 20 -3.5
-1.5 20 -3.5
-2 20 -3.5
-2.5 20 -3.5
-3 20 -3.5
-3.5 20 -3.5
-4 20 -3.5
-4 19.5 -3.5
-4 19 -3.5
-4 18.5 -3.5
-4 18 -3.5
-4 17.5 -3.5
-4 17 -3.5
-4 16.5 -3.5
-4 16 -3.5
-4 15.5 -3.5
-4 15 -3.5
-4 14.5 -3.5
-4 14 -3.5
-4 13.5 -3.5
-4 13 -3.5
-4 12.5 -3.5
-4 12 -3.5
-4 11.5 -3.5
-4 11 -3.5
-4 10.5 -3.5
-4 10 -3.5
-4 9.5 -3.5
-4 9 -3.5
-4 8.5 -3.5
-4 8 -3.5
-4 7.5 -3.5
-4 7 -3.5
-4 6.5 -3.5
-4 6 -3.5
-4 5.5 -3.5
-4 5 -3.5
-4 4.5 -3.5
-4 4 -3.5
-4 3.5 -3.5
-4 3 -3.5
-4 2.5 -3.5
-4 2 -3.5
-4 1.5 -3.5
-4 1 -3.5
-4 0.5 -3.5
-4 0 -3.5
-4 -0.5 -3.5
-4 -1 -3.5
-4 -1.5 -3.5
-4 -2 -3.5
-4 -2.5 -3.5
-4 -3 -3.5
-4 -3.5 -3.5
-4 -4 -3.5
-4 -4.5 -3.5
-4 -5 -3.5
-4 -5.5 -3.5
-4 -6 -3.5
-4 -6.5 -3.5
-4 -7 -3.5
-4 -7.5 -3.5
-4 -8 -3.5
-4 -8.5 -3.5
-4 -9 -3.5
-4 -9.5 -3.5
-4 -10 -3.5
-4 -10.5 -3.5
-4 -11 -3.5
-4 -11.5 -3.5
-4 -12 -3.5
-4 -12.5 -3.5
-4 -13 -3.5
-4 -13.5 -3.5
-4 -14 -3.5
-4 -14.5 -3.5
-4 -15 -3.5
-4 -15.5 -3.5
-4 -16 -3.5
-4 -16.5 -3.5
-4 -17 -3.5
-4 -17.5 -3.5
-4 -18 -3.5
-4 -18.5 -3.5
-4 -19 -3.5
-4 -19.5 -3.5
-4 -20 -3
-3.5 -20 -3
-3 -20 -3
-2.5 -20 -3
-2 -20 -3
-1.5 -20 -3
-1 -20 -3
-0.5 -20 -3
0 -20 -3
0.5 -20 -3
1 -20 -3
1.5 -20 -3
2 -20 -3
2.5 -20 -3
3 -20 -3
3.5 -20 -3
4 -20 -3
4 -19.5 -3
4 -19 -3
4 -18.5 -3
4 -18 -3
4 -17.5 -3
4 -17 -3
4 -16.5 -3
4 -16 -3
4 -15.5 -3
4 -15 -3
4 -14.5 -3
4 -14 -3
4 -13.5 -3
4 -13 -3
4 -12.5 -3
4 -12 -3
4 -11.5 -3
4 -11 -3
4 -10.5 -3
4 -10 -3
4 -9.5 -3
4 -9 -3
4 -8.5 -3
4 -8 -3
4 -7.5 -3
4 -7 -3
4 -6.5 -3
4 -6 -3
4 -5.5 -3
4 -5 -3
4 -4.5 -3
4 -4 -3
4 -3.5 -3
4 -3 -3
4 -2.5 -3
4 -2 -3
4 -1.5 -3
4 -1 -3
4 -0.5 -3
4 0 -3
4 0.5 -3
4 1 -3
4 1.5 -3
4 2 -3
4 2.5 -3
4 3 -3
4 3.5 -3
4 4 -3
4 4.5 -3
4 5 -3
4 5.5 -3
4 6 -3
4 6.5 -3
4 7 -3
4 7.5 -3
4 8 -3
4 8.5 -3
4 9 -3
4 9.5 -3
4 10 -3
4 10.5 -3
4 11 -3
4 11.5 -3
4 12 -3
4 12.5 -3
4 13 -3
4 13.5 -3
4 14 -3
4 14.5 -3
4 15 -3
4 15.5 -3
4 16 -3
4 16.5 -3
4 17 -3
4 17.5 -3
4 18 -3
4 18.5 -3
4 19 -3
4 19.5 -3
4 20 -3
3.5 20 -3
3 20 -3
2.5 20 -3
2 20 -3
1.5 20 -3
1 20 -3
0.5 20 -3
0 20 -3
-0.5 20 -3
-1 20 -3
-1.5 20 -3
-2 20 -3
-2.5 20 -3
-3 20 -3
-3.5 20 -3
-4 20 -3
-4 19.5 -3
-4 19 -3
-4 18.5 -3
-4 18 -3
-4 17.5 -3
-4 17 -3
-4 16.5 -3
-4 16 -3
-4 15.5 -3
-4 15 -3
-4 14.5 -3
-4 14 -3
-4 13.5 -3
-4 13 -3
-4 12.5 -3
-4 12 -3
-4 11.5 -3
-4 11 -3
-4 10.5 -3
-4 10 -3
-4 9.5 -3
-4 9 -3
-4 8.5 -3
-4 8 -3
-4 7.5 -3
-4 7 -3
-4 6.5 -3
-4 6 -3
-4 5.5 -3
-4 5 -3
-4 4.5 -3
-4 4 -3
-4 3.5 -3
-4 3 -3
-4 2.5 -3
-4 2 -3
-4 1.5 -3
-4 1 -3
-4 0.5 -3
-4 0 -3
-4 -0.5 -3
-4 -1 -3
-4 -1.5 -3
-4 -2 -3
-4 -2.5 -3
-4 -3 -3
-4 -3.5 -3
-4 -4 -3
-4 -4.5 -3
-4 -5 -3
-4 -5.5 -3
-4 -6 -3
-4 -6.5 -3
-4 -7 -3
-4 -7.5 -3
-4 -8 -3
-4 -8.5 -3
-4 -9 -3
-4 -9.5 -3
-4 -10 -3
-4 -10.5 -3
-4 -11 -3
-4 -11.5 -3
-4 -12 -3
-4 -12.5 -3
-4 -13 -3
-4 -13.5 -3
-4 -14 -3
-4 -14.5 -3
-4 -15 -3
-4 -15.5 -3
-4 -16 -3
-4 -16.5 -3
-4 -17 -3
-4 -17.5 -3
-4 -18 -3
-4 -18.5 -3
-4 -19 -3
-4 -19.5 -3
-4 -20 -2.5
-3.5 -20 -2.5
-3 -20 -2.5
-2.5 -20 -2.5
-2 -20 -2.5
-1.5 -20 -2.5
-1 -20 -2.5
-0.5 -20 -2.5
0 -20 -2.5
0.5 -20 -2.5
1 -20 -2.5
1.5 -20 -2.5
2 -20 -2.5
2.5 -20 -2.5
3 -20 -2.5
3.5 -20 -2.5
4 -20 -2.5
4 -19.5 -2.5
4 -19 -2.5
4 -18.5 -2.5
4 -18 -2.5
4 -17.5 -2.5
4 -17 -2.5
4 -16.5 -2.5
4 -16 -2.5
4 -15.5 -2.5
4 -15 -2.5
4 -14.5 -2.5
4 -14 -2.5
4 -13.5 -2.5
4 -13 -2.5
4 -12.5 -2.5
4 -12 -2.5
4 -11.5 -2.5
4 -11 -2.5
4 -10.5 -2.5
4 -10 -2.5
4 -9.5 -2.5
4 -9 -2.5
4 -8.5 -2.5
4 -8 -2.5
4 -7.5 -2.5
4 -7 -2.5
4 -6.5 -2.5
4 -6 -2.5
4 -5.5 -2.5
4 -5 -2.5
4 -4.5 -2.5
4 -4 -2.5
4 -3.5 -2.5
4 -3 -2.5
4 -2.5 -2.5
4 -2 -2.5
4 -1.5 -2.5
4 -1 -2.5
4 -0.5 -2.5
4 0 -2.5
4 0.5 -2.5
4 1 -2.5
4 1.5 -2.5
4 2 -2.5
4 2.5 -2.5
4 3 -2.5
4 3.5 -2.5
4 4 -2.5
4 4.5 -2.5
4 5 -2.5
4 5.5 -2.5
4 6 -2.5
4 6.5 -2.5
4 7 -2.5
4 7.5 -2.5
4 8 -2.5
4 8.5 -2.5
4 9 -2.5
4 9.5 -2.5
4 10 -2.5
4 10.5 -2.5
4 11 -2.5
4 11.5 -2.5
4 12 -2.5
4 12.5 -2.5
4 13 -2.5
4 13.5 -2.5
4 14 -2.5
4 14.5 -2.5
4 15 -2.5
4 15.5 -2.5
4 16 -2.5
4 16.5 -2.5
4 17 -2.5
4 17.5 -2.5
4 18 -2.5
4 18.5 -2.5
4 19 -2.5
4 19.5 -2.5
4 20 -2.5
3.5 20 -2.5
3 20 -2.5
2.5 20 -2.5
2 20 -2.5
1.5 20 -2.5
1 20 -2.5
0.5 20 -2.5
0 20 -2.5
-0.5 20 -2.5
-1 20 -2.5
-1.5 20 -2.5
-2 20 -2.5
-2.5 20 -2.5
-3 20 -2.5
-3.5 20 -2.5
-4 20 -2.5
-4 19.5 -2.5
-4 19 -2.5
-4 18.5 -2.5
-4 18 -2.5
-4 17.5 -2.5
-4 17 -2.5
-4 16.5 -2.5
-4 16 -2.5
-4 15.5 -2.5
-4 15 -2.5
-4 14.5 -2.5
-4 14 -2.5
-4 13.5 -2.5
-4 13 -2.5
-4 12.5 -2.5
-4 12 -2.5
-4 11.5 -2.5
-4 11 -2.5
-4 10.5 -2.5
-4 10 -2.5
-4 9.5 -2.5
-4 9 -2.5
-4 8.5 -2.5
-4 8 -2.5
-4 7.5 -2.5
-4 7 -2.5
-4 6.5 -2.5
-4 6 -2.5
-4 5.5 -2.5
-4 5 -2.5
-4 4.5 -2.5
-4 4 -2.5
-4 3.5 -2.5
-4 3 -2.5
-4 2.5 -2.5
-4 2 -2.5
-4 1.5 -2.5
-4 1 -2.5
-4 0.5 -2.5
-4 0 -2.5
-4 -0.5 -2.5
-4 -1 -2.5
-4 -1.5 -2.5
-4 -2 -2.5
-4 -2.5 -2.5
-4 -3 -2.5
-4 -3.5 -2.5
-4 -4 -2.5
-4 -4.5 -2.5
-4 -5 -2.5
-4 -5.5 -2.5
-4 -6 -2.5
-4 -6.5 -2.5
-4 -7 -2.5
-4 -7.5 -2.5
-4 -8 -2.5
-4 -8.5 -2.5
-4 -9 -2.5
-4 -9.5 -2.5
-4 -10 -2.5
-4 -10.5 -2.5
-4 -11 -2.5
-4 -11.5 -2.5
-4 -12 -2.5
-4 -12.5 -2.5
-4 -13 -2.5
-4 -13.5 -2.5
-4 -14 -2.5
-4 -14.5 -2.5
-4 -15 -2.5
-4 -15.5 -2.5
-4 -16 -2.5
-4 -16.5 -2.5
-4 -17 -2.5
-4 -17.5 -2.5
-4 -18 -2.5
-4 -18.5 -2.5
-4 -19 -2.5
-4 -19.5 -2.5
-4 -20 -2
-3.5 -20 -2
-3 -20 -2
-2.5 -20 -2
-2 -20 -2
-1.5 -20 -2
-1 -20 -2
-0.5 -20 -2
0 -20 -2
0.5 -20 -2
1 -20 -2
1.5 -20 -2
2 -20 -2
2.5 -20 -2
3 -20 -2
3.5 -20 -2
4 -20 -2
4 -19.5 -2
4 -19 -2
4 -18.5 -2
4 -18 -2
4 -17.5 -2
4 -17 -2
4 -16.5 -2
4 -16 -2
4 -15.5 -2
4 -15 -2
4 -14.5 -2
4 -14 -2
4 -13.5 -2
4 -13 -2
4 -12.5 -2
4 -12 -2
4 -11.5 -2
4 -11 -2
4 -10.5 -2
4 -10 -2
4 -9.5 -2
4 -9 -2
4 -8.5 -2
4 -8 -2
4 -7.5 -2
4 -7 -2
4 -6.5 -2
4 -6 -2
4 -5.5 -2
4 -5 -2
4 -4.5 -2
4 -4 -2
4 -3.5 -2
4 -3 -2
4 -2.5 -2
4 -2 -2
4 -1.5 -2
4 -1 -2
4 -0.5 -2
4 0 -2
4 0.5 -2
4 1 -2
4 1.5 -2
4 2 -2
4 2.5 -2
4 3 -2
4 3.5 -2
4 4 -2
4 4.5 -2
4 5 -2
4 5.5 -2
4 6 -2
4 6.5 -2
4 7 -2
4 7.5 -2
4 8 -2
4 8.5 -2
4 9 -2
4 9.5 -2
4 10 -2
4 10.5 -2
4 11 -2
4 11.5 -2
4 12 -2
4 12.5 -2
4 13 -2
4 13.5 -2
4 14 -2
4 14.5 -2
4 15 -2
4 15.5 -2
4 16 -2
4 16.5 -2
4 17 -2
4 17.5 -2
4 18 -2
4 18.5 -2
4 19 -2
4 19.5 -2
4 20 -2
3.5 20 -2
3 20 -2
2.5 20 -2
2 20 -2
1.5 20 -2
1 20 -2
0.5 20 -2
0 20 -2
-0.5 20 -2
-1 20 -2
-1.5 20 -2
-2 20 -2
-2.5 20 -2
-3 20 -2
-3.5 20 -2
-4 20 -2
-4 19.5 -2
-4 19 -2
-4 18.5 -2
-4 18 -2
-4 17.5 -2
-4 17 -2
-4 16.5 -2
-4 16 -2
-4 15.5 -2
-4 15 -2
-4 14.5 -2
-4 14 -2
-4 13.5 -2
-4 13 -2
-4 12.5 -2
-4 12 -2
-4 11.5 -2
-4 11 -2
-4 10.5 -2
-4 10 -2
-4 9.5 -2
-4 9 -2
-4 8.5 -2
-4 8 -2
-4 7.5 -2
-4 7 -2
-4 6.5 -2
-4 6 -2
-4 5.5 -2
-4 5 -2
-4 4.5 -2
-4 4 -2
-4 3.5 -2
-4 3 -2
-4 2.5 -2
-4 2 -2
-4 1.5 -2
-4 1 -2
-4 0.5 -2
-4 0 -2
-4 -0.5 -2
-4 -1 -2
-4 -1.5 -2
-4 -2 -2
-4 -2.5 -2
-4 -3 -2
-4 -3.5 -2
-4 -4 -2
-4 -4.5 -2
-4 -5 -2
-4 -5.5 -2
-4 -6 -2
-4 -6.5 -2
-4 -7 -2
-4 -7.5 -2
-4 -8 -2
-4 -8.5 -2
-4 -9 -2
-4 -9.5 -2
-4 -10 -2
-4 -10.5 -2
-4 -11 -2
-4 -11.5 -2
-4 -12 -2
-4 -12.5 -2
-4 -13 -2
-4 -13.5 -2
-4 -14 -2
-4 -14.5 -2
-4 -15 -2
-4 -15.5 -2
-4 -16 -2
-4 -16.5 -2
[...]
CELL_DATA 61440
SCALARS cell_scalars double 1
LOOKUP_TABLE default
-0.005
-0.005
-0.005
-0.005
-0.005
-0.005
-0.005
-0.005
-0.005
-0.005
-0.005
-0.005
-0.005
-0.005
-0.005
-0.005
-0.005
-0.005
-0.005
-0.005
-0.005
-0.005
-0.005
-0.005
-0.005
-0.005
-0.005
-0.005
-0.005
-0.005
-0.005
-0.005
-0.005
-0.005
-0.005
-0.005
-0.005
-0.005
-0.005
-0.005
-0.005
-0.005
-0.005
-0.005
-0.005
-0.005
-0.005
-0.005
-0.005
-0.005
-0.005
-0.005
-0.005
-0.005
-0.005
-0.005
-0.005
-0.005
-0.005
-0.005
-0.005
-0.005
-0.005
-0.005
-0.005
-0.005
-0.005
-0.005
-0.005
-0.005
-0.005
-0.005
-0.005
-0.005
-0.005
-0.005
-0.005
-0.005
-0.005
-0.005
1.5
-0.005
1.5
-0.005
-0.005
-0.005
-0.005
-0.005
-0.005
-0.005
-0.005
-0.005
-0.005
-0.005
-0.005
-0.005
-0.005
-0.005
-0.005
-0.005
-0.005
-0.005
-0.005
-0.005
-0.005
-0.005
-0.005
-0.005
-0.005
-0.005
-0.005
-0.005
-0.005
-0.005
-0.005
-0.005
-0.005
-0.005
-0.005
-0.005
-0.005
-0.005
-0.005
-0.005
-0.005
-0.005
-0.005
-0.005
-0.005
-0.005
-0.005
-0.005
-0.005
-0.005
-0.005
-0.005
-0.005
-0.005
-0.005
-0.005
-0.005
-0.005
-0.005
-0.005
-0.005
-0.005
-0.005
-0.005
-0.005
-0.005
-0.005
-0.005
-0.005
-0.005
-0.005
-0.005
-0.005
-0.005
-0.005
-0.005
-0.005
-0.005
-0.005
-0.005
-0.005
-0.005
-0.005
-0.005
-0.005
-0.005
-0.005
-0.005
-0.005
-0.005
-0.005
-0.005
-0.005
-0.005
-0.005
-0.005
-0.005
-0.005
-0.005
-0.005
-0.005
-0.005
-0.005
-0.005
-0.005
-0.005
-0.005
-0.005
-0.005
-0.005
-0.005
-0.005
-0.005
-0.005
-0.005
-0.005
-0.005
-0.005
-0.005
-0.005
1.5
-0.005
-0.005
-0.005
-0.005
-0.005
-0.005
-0.005
-0.005
-0.005
-0.005
-0.005
-0.005
-0.005
-0.005
-0.005
-0.005
-0.005
-0.005
-0.005
-0.005
-0.005
-0.005
-0.005
-0.005
-0.005
-0.005
-0.005
-0.005
-0.005
-0.005
-0.005
-0.005
-0.005
-0.005
-0.005
-0.005
-0.005
-0.005
-0.005
-0.005
1.2
-0.005
-0.005
-0.005
-0.005
-0.005
-0.005
-0.005
-0.005
-0.005
-0.005
-0.005
-0.005
-0.005
-0.005
-0.005
-0.005
-0.005
-0.005
-0.005
-0.005
-0.005
-0.005
-0.005
-0.005
-0.005
-0.005
-0.005
-0.005
-0.005
-0.005
-0.005
-0.005
-0.005
-0.005
-0.005
-0.005
-0.005
-0.005
-0.005
-0.005
-0.005
-0.005
-0.005
-0.005
-0.005
-0.005
-0.005
-0.005
-0.005
-0.005
-0.005
-0.005
-0.005
-0.005
-0.005
-0.005
-0.005
-0.005
-0.005
-0.005
-0.005
-0.005
-0.005
-0.005
-0.005
-0.005
-0.005
-0.005
-0.005
-0.005
-0.005
-0.005
-0.005
-0.005
-0.005
-0.005
-0.005
-0.005
-0.005
-0.005
-0.005
-0.005
-0.005
-0.005
-0.005
-0.005
-0.005
-0.005
-0.005
-0.005
-0.005
-0.005
-0.005
-0.005
-0.005
-0.005
-0.005
-0.005
-0.005
-0.005
-0.005
-0.005
-0.005
-0.005
-0.005
-0.005
-0.005
-0.005
-0.005
-0.005
-0.005
-0.005
-0.005
-0.005
-0.005
-0.005
-0.005
-0.005
-0.005
-0.005
-0.005
-0.005
-0.005
-0.005
-0.005
-0.005
-0.005
-0.005
-0.005
-0.005
-0.005
-0.005
-0.005
-0.005
-0.005
-0.005
-0.005
-0.005
-0.005
-0.005
-0.005
-0.005
-0.005
-0.005
-0.005
-0.005
-0.005
-0.005
-0.005
-0.005
-0.005
-0.005
-0.005
-0.005
-0.005
-0.005
-0.005
-0.005
-0.005
-0.005
-0.005
-0.005
-0.005
-0.005
-0.005
-0.005
-0.005
-0.005
-0.005
-0.005
-0.005
-0.005
-0.005
-0.005
-0.005
-0.005
-0.005
-0.005
-0.005
-0.005
-0.005
-0.005
-0.005
-0.005
-0.005
-0.005
-0.005
-0.005
-0.005
-0.005
-0.005
-0.005
-0.005
-0.005
-0.005
-0.005
-0.005
-0.005
-0.005
-0.005
-0.005
-0.005
-0.005
1.8
-0.005
-0.005
-0.005
-0.005
-0.005
-0.005
-0.005
-0.005
-0.005
-0.005
-0.005
-0.005
-0.005
-0.005
-0.005
-0.005
-0.005
-0.005
-0.005
-0.005
-0.005
-0.005
-0.005
-0.005
-0.005
-0.005
-0.005
-0.005
-0.005
-0.005
1.5
-0.005
-0.005
-0.005
-0.005
-0.005
-0.005
-0.005
-0.005
-0.005
-0.005
-0.005
-0.005
-0.005
-0.005
-0.005
-0.005
-0.005
-0.005
-0.005
-0.005
-0.005
-0.005
-0.005
-0.005
-0.005
-0.005
-0.005
-0.005
-0.005
-0.005
-0.005
-0.005
-0.005
-0.005
-0.005
-0.005
-0.005
-0.005
-0.005
-0.005
-0.005
-0.005
-0.005
-0.005
-0.005
-0.005
-0.005
-0.005
-0.005
-0.005
-0.005
-0.005
-0.005
-0.005
-0.005
-0.005
-0.005
-0.005
-0.005
-0.005
-0.005
-0.005
-0.005
-0.005
-0.005
-0.005
-0.005
-0.005
-0.005
-0.005
-0.005
-0.005
-0.005
-0.005
-0.005
-0.005
-0.005
-0.005
-0.005
-0.005
-0.005
-0.005
-0.005
-0.005
-0.005
-0.005
-0.005
-0.005
-0.005
-0.005
-0.005
-0.005
-0.005
-0.005
-0.005
-0.005
-0.005
-0.005
-0.005
-0.005
-0.005
-0.005
-0.005
-0.005
-0.005
-0.005
-0.005
-0.005
-0.005
-0.005
-0.005
-0.005
-0.005
-0.005
-0.005
-0.005
-0.005
-0.005
-0.005
-0.005
-0.005
-0.005
-0.005
-0.005
-0.005
-0.005
-0.005
-0.005
-0.005
-0.005
-0.005
-0.005
-0.005
-0.005
-0.005
-0.005
-0.005
-0.005
-0.005
-0.005
-0.005
-0.005
-0.005
-0.005
-0.005
-1.1
-0.005
-0.005
-0.005
-0.005
-0.005
-0.005
-0.005
-0.005
-0.005
-0.005
-0.005
-0.005
-0.005
-0.005
-0.005
-0.005
-0.005
-0.005
-0.005
-0.005
-0.005
-0.005
-0.005
-0.005
-0.005
-0.005
-0.005
-0.005
-0.005
-0.005
-0.005
-0.005
-0.005
-0.005
-0.005
-0.005
-0.005
-0.005
-0.005
-0.005
-0.005
-0.005
-0.005
-0.005
-0.005
-0.005
-0.005
-0.005
-0.005
-0.005
-0.005
-0.005
-0.005
-0.005
-0.005
-0.005
-0.005
-0.005
-0.005
-0.005
-0.005
-0.005
-0.005
-0.005
-0.005
-0.005
-0.005
-0.005
-0.005
-0.005
-0.005
-0.005
-0.005
-0.005
-0.005
-0.005
-0.005
-0.005
-0.005
-0.005
-0.005
-0.005
-0.005
-0.005
-0.005
-0.005
-0.005
-0.005
-0.005
-0.005
-0.005
-0.005
-0.005
-0.005
-0.005
-0.005
-0.005
-0.005
-0.005
-0.005
-0.005
-0.005
-0.005
-0.005
-0.005
-0.005
-0.005
-0.005
-0.005
-0.005
-0.005
-0.005
-0.005
-0.005
-0.005
-0.005
-0.005
-0.005
-0.005
-0.005
-0.005
-0.005
-0.005
-0.005
-0.005
-0.005
-0.005
-0.005
-0.005
-0.005
-0.005
-0.005
-0.005
-0.005
-0.005
-0.005
-0.005
-0.005
-0.005
-0.005
-0.005
-0.005
-0.005
-0.005
-0.005
-0.005
-0.005
-0.005
-0.005
-0.005
-0.005
-0.005
-0.005
-0.005
-0.005
-0.005
-0.005
-0.005
-0.005
-0.005
-0.005
-0.005
-0.005
-0.005
-0.005
-0.005
-0.005
-0.005
-0.005
-0.005
-0.005
-0.005
-0.005
-0.005
-0.005
-0.005
-0.005
-0.005
-0.005
-0.005
-0.005
-0.005
-0.005
-0.005
-0.005
-0.005
-0.005
-0.005
-0.005
-0.005
-0.005
-0.005
-0.005
-0.005
-0.005
-0.005
-0.005
-0.005
-0.005
-0.005
-0.005
-0.005
-0.005
-0.005
-0.005
-0.005
-0.005
-0.005
-0.005
-0.005
-0.005
-0.005
-0.005
-0.005
-0.005
-0.005
-0.005
-0.005
-0.005
-0.005
-0.005
-0.005
-0.005
-0.005
-0.005
-0.005
-0.005
-0.005
-0.005
-0.005
-0.005
-0.005
-0.005
-0.005
-0.005
-0.005
-0.005
-0.005
-0.005
-0.005
-0.005
-0.005
-0.005
-0.005
-0.005
-0.005
-0.005
-0.005
-0.005
-0.005
-0.005
-0.005
-0.005
-0.005
-0.005
-0.005
-0.005
-0.005
-0.005
-0.005
-0.005
-0.005
-0.005
-0.005
-0.005
-0.005
-0.005
-0.005
-0.005
-0.005
-0.005
-0.005
-0.005
-0.005
-0.005
-0.005
-0.005
-0.005
-0.005
-0.005
-0.005
-0.005
-0.005
-0.005
-0.005
-0.005
-0.005
-0.005
-0.005
-0.005
-0.005
-0.005
-0.005
-0.005
-0.005
-0.005
-0.005
-0.005
-0.005
-0.005
-0.005
-0.005
-0.005
-0.005
-0.005
-0.005
-0.005
-0.005
-0.005
-0.005
-0.005
-0.005
-0.005
-0.005
-0.005
-0.005
-0.005
-0.005
-0.005
-0.005
-0.005
-0.005
-0.005
-0.005
-0.005
-0.005
-0.005
-0.005
-0.005
-0.005
-0.005
-0.005
-0.005
-0.005
-0.005
-0.005
-0.005
-0.005
-0.005
-0.005
-0.005
-0.005
-0.005
-0.005
-0.005
-0.005
-0.005
-0.005
-0.005
-0.005
-0.005
-0.005
-0.005
-0.005
-0.005
-0.005
-0.005
-0.005
-0.005
-0.005
-0.005
-0.005
-0.005
-0.005
-0.005
-0.005
-0.005
-0.005
-0.005
-0.005
-0.005
-0.005
-0.005
-0.005
-0.005
-0.005
-0.005
-0.005
-0.005
-0.005
-0.005
-0.005
-0.005
-0.005
-0.005
-0.005
-0.005
-0.005
-0.005
1.5
-0.005
-0.005
-0.005
-0.005
-0.005
-0.005
-0.005
-0.005
-0.005
-0.005
-0.005
-0.005
-0.005
-0.005
-0.005
-0.005
-0.005
-0.005
-0.005
-0.005
-0.005
-0.005
-0.005
-0.005
-0.005
-0.005
-0.005
-0.005
-0.005
-0.005
-0.005
-0.005
-0.005
-0.005
-0.005
-0.005
-0.005
-0.005
-0.005
-0.005
-0.005
-0.005
-0.005
-0.005
-0.005
-0.005
-0.005
-0.005
-0.005
-0.005
-0.005
-0.005
-0.005
-0.005
-0.005
-0.005
-0.005
-0.005
-0.005
-0.005
-0.005
-0.005
-0.005
-0.005
-0.005
-0.005
-0.005
-0.005
-0.005
-0.005
-0.005
-0.005
-0.005
-0.005
-0.005
-0.005
-0.005
-0.005
-0.005
-0.005
-0.005
-0.005
-0.005
-0.005
-0.005
-0.005
-0.005
-0.005
-0.005
-0.005
-0.005
-0.005
-0.005
-0.005
-0.005
-0.005
-0.005
-0.005
-0.005
-0.005
-0.005
-0.005
-0.005
-0.005
-0.005
-0.005
-0.005
-0.005
-0.005
-0.005
-0.005
-0.005
-0.005
-0.005
-0.005
-0.005
-0.005
-0.005
-0.005
-0.005
-0.005
-0.005
-0.005
-0.005
-0.005
-0.005
-0.005
-0.005
-0.005
-0.005
-0.005
-0.005
-0.005
-0.005
-0.005
-0.005
1.5
-0.005
-0.005
-0.005
-0.005
-0.005
-0.005
-0.005
-0.005
-0.005
-0.005
-0.005
-0.005
-0.005
-0.005
-0.005
-0.005
-0.005
-0.005
-0.005
-0.005
-0.005
-0.005
-0.005
-0.005
-0.005
-0.005
-0.005
-0.005
-0.005
-0.005
-0.005
-0.005
-0.005
-0.005
-0.005
-0.005
-0.005
-0.005
-0.005
-0.005
-0.005
-0.005
-0.005
-0.005
-0.005
-0.005
-0.005
-0.005
-0.005
-0.005
-0.005
-0.005
-0.005
-0.005
-0.005
-0.005
-0.005
-0.005
-0.005
-0.005
-0.005
-0.005
-0.005
-0.005
-0.005
-0.005
-0.005
-0.005
-0.005
-0.005
-0.005
-0.005
-0.005
-0.005
-0.005
-0.005
-0.005
-0.005
-0.005
-0.005
-0.005
-0.005
-0.005
-0.005
-0.005
-0.005
-0.005
-0.005
-0.005
-0.005
-0.005
-0.005
-0.005
-0.005
-0.005
-0.005
-0.005
-0.005
-0.005
-0.005
-0.005
-0.005
-0.005
-0.005
-0.005
-0.005
-0.005
-0.005
-0.005
-0.005
-0.005
-0.005
-0.005
-0.005
-0.005
-0.005
-0.005
-0.005
-0.005
-0.005
-0.005
-0.005
-0.005
-0.005
-0.005
-0.005
-0.005
-0.005
-0.005
-0.005
-0.005
-0.005
-0.005
-0.005
-0.005
-0.005
-0.005
-0.005
-0.005
-0.005
-0.005
-0.005
-0.005
-0.005
-0.005
-0.005
-0.005
-0.005
-0.005
-0.005
-0.005
-0.005
-0.005
-0.005
-0.005
-0.005
-0.005
-0.005
-0.005
-0.005
-0.005
-0.005
-0.005
-0.005
-0.005
-0.005
-0.005
-0.005
-0.005
-0.005
-0.005
-0.005
-0.005
-0.005
-0.005
-0.005
-0.005
-0.005
-0.005
-0.005
-0.005
-0.005
-0.005
-0.005
-0.005
-0.005
-0.005
-0.005
-0.005
-0.005
-0.005
-0.005
-0.005
-0.005
-0.005
-0.005
-0.005
-0.005
-0.005
-0.005
-0.005
-0.005
-0.005
-0.005
-0.005
-0.005
-0.005
-0.005
-0.005
-0.005
-0.005
-0.005
-0.005
-0.005
-0.005
-0.005
-0.005
-0.005
-0.005
-0.005
-0.005
-0.005
-0.005
-0.005
-0.005
-0.005
-0.005
-0.005
-0.005
-0.005
-0.005
-0.005
-0.005
-0.005
-0.005
-0.005
-0.005
-0.005
-0.005
-0.005
-0.005
-0.005
-0.005
-0.005
-0.005
-0.005
-0.005
-0.005
-0.005
-0.005
-0.005
-0.005
-0.005
-0.005
-0.005
-0.005
-0.005
-0.005
-0.005
-0.005
-0.005
-0.005
-0.005
-0.005
-0.005
-0.005
-0.005
-0.005
-0.005
-0.005
-0.005
-0.005
-0.005
-0.005
-0.005
-0.005
-0.005
-0.005
-0.005
-0.005
-0.005
-0.005
-0.005
-0.005
-0.005
-0.005
-0.005
-0.005
-0.005
-0.005
-0.005
-0.005
-0.005
-0.005
-0.005
-0.005
-0.005
-0.005
-0.005
-0.005
-0.005
-0.005
-0.005
-0.005
-0.005
-0.005
-0.005
-0.005
-0.005
-0.005
-0.005
-0.005
-0.005
-0.005
-0.005
-0.005
-0.005
-0.005
-0.005
-0.005
-0.005
-0.005
-0.005
-0.005
-0.005
-0.005
-0.005
-0.005
-0.005
-0.005
-0.005
-0.005
-0.005
-0.005
-0.005
-0.005
-0.005
-0.005
-0.005
-0.005
-0.005
-0.005
-0.005
-0.005
-0.005
-0.005
-0.005
-0.005
-0.005
-0.005
-0.005
-0.005
-0.005
-0.005
-0.005
-0.005
-0.005
-0.005
-0.005
-0.005
-0.005
-0.005
-0.005
-0.005
-0.005
-0.005
-0.005
-0.005
-0.005
-0.005
-0.005
-0.005
-0.005
-0.005
-0.005
-0.005
-0.005
-0.005
-0.005
-0.005
-0.005
-0.005
-0.005
-0.005
-0.005
-0.005
-0.005
-0.005
-0.005
-0.005
-0.005
-0.005
-0.005
-0.005
-0.005
-0.005
-0.005
-0.005
-0.005
-0.005
-0.005
-0.005
-0.005
-0.005
-0.005
-0.005
-0.005
-0.005
-0.005
-0.005
-0.005
-0.005
-0.005
-0.005
-0.005
-0.005
-0.005
-0.005
-0.005
-0.005
-0.005
-0.005
-0.005
-0.005
-0.005
-0.005
-0.005
-0.005
-0.005
-0.005
-0.005
-0.005
-0.005
-0.005
-0.005
-0.005
-0.005
-0.005
-0.005
-0.005
-0.005
-0.005
-0.005
-0.005
-0.005
-0.005
-0.005
-0.005
-0.005
-0.005
-0.005
-0.005
-0.005
-0.005
-0.005
-0.005
-0.005
-0.005
-0.005
-0.005
-0.005
-0.005
-0.005
-0.005
-0.005
-0.005
-0.005
-0.005
-0.005
-0.005
-0.005
-0.005
-0.005
-0.005
-0.005
-0.005
-0.005
-0.005
-0.005
-0.005
-0.005
-0.005
-0.005
-0.005
-0.005
-0.005
-0.005
-0.005
-0.005
-0.005
-0.005
-0.005
-0.005
-0.005
-0.005
-0.005
-0.005
-0.005
-0.005
-0.005
-0.005
-0.005
-0.005
-0.005
-0.005
-0.005
-0.005
-0.005
-0.005
-0.005
-0.005
-0.005
-0.005
-0.005
-0.005
-0.005
-0.005
-0.005
-0.005
-0.005
-0.005
-0.005
-0.005
-0.005
-0.005
-0.005
-0.005
-0.005
-0.005
-0.005
-0.005
-0.005
-0.005
-0.005
-0.005
-0.005
-0.005
-0.005
-0.005
-0.005
-0.005
-0.005
-0.005
-0.005
-0.005
-0.005
-0.005
-0.005
-0.005
-0.005
-0.005
-0.005
-0.005
-0.005
-0.005
-0.005
-0.005
-0.005
-0.005
-0.005
-0.005
-0.005
-0.005
-0.005
-0.005
-0.005
-0.005
-0.005
-0.005
-0.005
-0.005
-0.005
-0.005
-0.005
-0.005
-0.005
-0.005
-0.005
-0.005
-0.005
-0.005
-0.005
-0.005
-0.005
-0.005
-0.005
-0.005
-0.005
-0.005
-0.005
-0.005
-0.005
-0.005
-0.005
-0.005
-0.005
-0.005
-0.005
-0.005
-0.005
-0.005
-0.005
-0.005
-0.005
-0.005
-0.005
-0.005
-0.005
-0.005
-0.005
-0.005
-0.005
-0.005
-0.005
-0.005
-0.005
-0.005
-0.005
-0.005
-0.005
-0.005
-0.005
-0.005
-0.005
-0.005
-0.005
-0.005
-0.005
-0.005
-0.005
-0.005
-0.005
-0.005
-0.005
-0.005
-0.005
-0.005
-0.005
-0.005
-0.005
-0.005
-0.005
-0.005
-0.005
-0.005
-0.005
-0.005
-0.005
-0.005
-0.005
-0.005
-0.005
-0.005
-0.005
-0.005
-0.005
-0.005
-0.005
-0.005
-0.005
-0.005
-0.005
-0.005
-0.005
-0.005
-0.005
-0.005
-0.005
-0.005
-0.005
-0.005
-0.005
-0.005
-0.005
-0.005
-0.005
-0.005
-0.005
-0.005
-0.005
-0.005
-0.005
-0.005
-0.005
-0.005
-0.005
-0.005
-0.005
-0.005
-0.005
-0.005
-0.005
-0.005
-0.005
-0.005
-0.005
-0.005
-0.005
-0.005
-0.005
-0.005
-0.005
-0.005
-0.005
-0.005
-0.005
-0.005
-0.005
-0.005
-0.005
-0.005
-0.005
-0.005
-0.005
-0.005
-0.005
-0.005
-0.005
-0.005
-0.005
-0.005
-0.005
-0.005
-0.005
-0.005
-0.005
-0.005
-0.005
-0.005
-0.005
-0.005
-0.005
-0.005
-0.005
-0.005
-0.005
-0.005
-0.005
-0.005
-0.005
-0.005
-0.005
-0.005
-0.005
-0.005
-0.005
-0.005
-0.005
-0.005
-0.005
-0.005
-0.005
-0.005
-0.005
-0.005
-0.005
-0.005
-0.005
-0.005
-0.005
-0.005
-0.005
-0.005
-0.005
-0.005
-0.005
-0.005
-0.005
-0.005
-0.005
-0.005
-0.005
-0.005
-0.005
-0.005
-0.005
-0.005
-0.005
-0.005
-0.005
-0.005
-0.005
-0.005
-0.005
-0.005
-0.005
-0.005
-0.005
-0.005
-0.005
-0.005
-0.005
-0.005
-0.005
-0.005
-0.005
-0.005
-0.005
-0.005
-0.005
-0.005
-0.005
-0.005
-0.005
-0.005
-0.005
-0.005
-0.005
-0.005
-0.005
-0.005
-0.005
-0.005
-0.005
-0.005
-0.005
-0.005
-0.005
-0.005
-0.005
-0.005
-0.005
-0.005
-0.005
-0.005
-0.005
-0.005
-0.005
-0.005
-0.005
-0.005
-0.005
-0.005
-0.005
-0.005
-0.005
-0.005
-0.005
-0.005
-0.005
-0.005
-0.005
-0.005
-0.005
-0.005
-0.005
-0.005
-0.005
-0.005
-0.005
-0.005
-0.005
-0.005
-0.005
-0.005
-0.005
-0.005
-0.005
-0.005
-0.005
-0.005
-0.005
-0.005
-0.005
-0.005
-0.005
-0.005
-0.005
-0.005
-0.005
-0.005
-0.005
-0.005
-0.005
-0.005
-0.005
-0.005
-1.8
-0.005
-0.005
-0.005
-0.005
-0.005
-0.005
-0.005
-0.005
-0.005
-0.005
-0.005
-0.005
-0.005
-0.005
-0.005
-0.005
-0.005
-0.005
-0.005
-0.005
-0.005
-0.005
-0.005
-0.005
-0.005
-0.005
-0.005
-0.005
-0.005
-0.005
-0.005
-0.005
-0.005
-0.005
-0.005
-0.005
-0.005
-0.005
-0.005
-0.005
-0.005
-0.005
-0.005
-0.005
-0.005
-0.005
-0.005
-0.005
-0.005
-0.005
-0.005
-0.005
-0.005
-0.005
-0.005
-0.005
-0.005
-0.005
-0.005
-0.005
-0.005
-0.005
-0.005
-0.005
-0.005
-0.005
-0.005
-0.005
-0.005
-0.005
-0.005
-0.005
-0.005
-0.005
-0.005
-0.005
-0.005
-0.005
-0.005
-0.005
-0.005
-0.005
-0.005
-0.005
-0.005
-0.005
1.5
-0.005
-0.005
-0.005
-0.005
-0.005
-0.005
-0.005
-0.005
-0.005
-0.005
-0.005
-0.005
-0.005
-0.005
-0.005
-0.005
-0.005
-0.005
-0.005
-0.005
-0.005
-0.005
-0.005
-0.005
-0.005
-0.005
-0.005
-0.005
-0.005
-0.005
-0.005
-0.005
-0.005
-0.005
-0.005
-0.005
-0.005
-0.005
-0.005
-0.005
-0.005
-0.005
-0.005
-0.005
-0.005
-0.005
-0.005
-0.005
-0.005
-0.005
-0.005
-0.005
-0.005
-0.005
-0.005
-0.005
-0.005
-0.005
-0.005
-0.005
-0.005
-0.005
-0.005
-0.005
-0.005
-0.005
-0.005
-0.005
-0.005
-0.005
-0.005
-0.005
-0.005
-0.005
-0.005
-0.005
-0.005
-0.005
-0.005
-0.005
-0.005
-0.005
-0.005
-0.005
-0.005
-0.005
-0.005
-0.005
-0.005
-0.005
-0.005
-0.005
-0.005
-0.005
-0.005
-0.005
-0.005
-0.005
-0.005
-0.005
-0.005
-0.005
-0.005
-0.005
-0.005
-0.005
-0.005
-0.005
-0.005
-0.005
-0.005
-0.005
-0.005
-0.005
-0.005
-0.005
-0.005
-0.005
-0.005
-0.005
-0.005
-0.005
-0.005
-0.005
-0.005
-0.005
-0.005
-0.005
-0.005
-0.005
-0.005
-0.005
-0.005
-0.005
-0.005
-0.005
-0.005
-0.005
-0.005
-0.005
-0.005
-0.005
-0.005
-0.005
-0.005
-0.005
-0.005
-0.005
-0.005
-0.005
-0.005
-0.005
-0.005
-0.005
-0.005
-0.005
-0.005
-0.005
-0.005
-0.005
-0.005
-0.005
-0.005
-0.005
-0.005
-0.005
-0.005
-0.005
-0.005
-0.005
-0.005
-0.005
-0.005
-0.005
-0.005
-0.005
-0.005
-0.005
-0.005
-0.005
-0.005
-0.005
-0.005
-0.005
-0.005
-0.005
-0.005
-0.005
-0.005
-0.005
-0.005
-0.005
-0.005
-0.005
-0.005
-0.005
-0.005
-0.005
-0.005
-0.005
-0.005
-0.005
-0.005
-0.005
-0.005
-0.005
-0.005
-0.005
-0.005
-0.005
-0.005
-0.005
-0.005
-0.005
-0.005
-0.005
-0.005
-0.005
-0.005
-0.005
-0.005
-0.005
-0.005
-0.005
-0.005
-0.005
-0.005
-0.005
-0.005
-0.005
-0.005
-0.005
-0.005
-0.005
-0.005
-0.005
-0.005
-0.005
-0.005
-0.005
-0.005
-0.005
-0.005
-0.005
1.5
-0.005
-0.005
-0.005
-0.005
-0.005
-0.005
-0.005
-0.005
-1.8
-0.005
-0.005
-0.005
-0.005
-0.005
-0.005
-0.005
-0.005
-0.005
-0.005
-0.005
-0.005
-0.005
-0.005
-0.005
-0.005
-0.005
-0.005
-0.005
-0.005
-0.005
-0.005
-0.005
-0.005
-0.005
-0.005
-0.005
-0.005
-0.005
1.2
-0.005
-0.005
-0.005
-0.005
-0.005
-0.005
-0.005
-0.005
-0.005
-0.005
-0.005
-0.005
-0.005
-0.005
-0.005
-0.005
-0.005
-0.005
-0.005
-0.005
-0.005
-0.005
-0.005
-0.005
-0.005
-0.005
-0.005
-0.005
-0.005
-0.005
-0.005
-0.005
-0.005
-0.005
-0.005
-0.005
-0.005
-0.005
-0.005
-0.005
-0.005
-0.005
-0.005
-0.005
-0.005
-0.005
1.2
-0.005
-0.005
-0.005
-0.005
-0.005
-0.005
-0.005
-0.005
-0.005
-0.005
-0.005
-0.005
-0.005
-0.005
-0.005
-0.005
-0.005
-0.005
-0.005
-0.005
-0.005
-0.005
-0.005
-0.005
-0.005
-0.005
-0.005
-0.005
-0.005
-0.005
-0.005
-0.005
-0.005
-0.005
-0.005
-0.005
-0.005
-0.005
-0.005
-0.005
-0.005
-0.005
-0.005
-0.005
-0.005
-0.005
-0.005
-0.005
-0.005
-0.005
-0.005
-0.005
-0.005
-0.005
-0.005
-0.005
-0.005
-0.005
-0.005
-0.005
-0.005
-0.005
-1.1
-0.005
-0.005
-0.005
-0.005
-0.005
-0.005
-0.005
-0.005
-0.005
-0.005
-0.005
-0.005
-0.005
-0.005
-0.005
-0.005
-0.005
-0.005
-0.005
-0.005
-0.005
-0.005
-0.005
-0.005
-0.005
-0.005
-0.005
-0.005
-0.005
-0.005
-0.005
-0.005
-0.005
-0.005
-0.005
-0.005
-0.005
-0.005
-0.005
-0.005
-0.005
-0.005
-0.005
-0.005
-0.005
-0.005
-0.005
-0.005
-0.005
-0.005
-0.005
-0.005
-0.005
-0.005
-0.005
-0.005
-0.005
-0.005
-0.005
-0.005
-0.005
-0.005
-0.005
-0.005
-0.005
-0.005
-0.005
-0.005
-0.005
-0.005
-0.005
-0.005
-0.005
-0.005
-0.005
-0.005
-0.005
-0.005
-0.005
-0.005
-0.005
-0.005
-0.005
-0.005
-0.005
-0.005
-0.005
-0.005
-0.005
-0.005
-0.005
-0.005
-0.005
-0.005
-0.005
-0.005
-0.005
-0.005
-0.005
-0.005
-0.005
-0.005
-0.005
-0.005
-0.005
-0.005
-0.005
-0.005
-0.005
-0.005
-0.005
-0.005
-0.005
-0.005
-0.005
-0.005
-0.005
-0.005
-0.005
-0.005
-0.005
-0.005
-0.005
-0.005
-0.005
-0.005
-0.005
-0.005
-0.005
-0.005
-0.005
-0.005
-0.005
-0.005
-0.005
-0.005
-0.005
-0.005
-0.005
-0.005
-0.005
-0.005
-0.005
-0.005
-0.005
-0.005
-0.005
-0.005
-0.005
-0.005
-0.005
-0.005
-0.005
-0.005
-0.005
-0.005
-0.005
-0.005
-0.005
-0.005
-0.005
-0.005
-0.005
-0.005
-1.5
-0.005
-0.005
-0.005
-0.005
-0.005
-0.005
-0.005
-0.005
-0.005
-0.005
-0.005
-0.005
-0.005
-0.005
-0.005
-0.005
-0.005
-0.005
-0.005
-0.005
-0.005
-0.005
-0.005
-0.005
-0.005
-0.005
-0.005
-0.005
-0.005
-0.005
-0.005
-0.005
-0.005
-0.005
-0.005
-0.005
-0.005
-0.005
-0.005
-0.005
-0.005
-0.005
-0.005
-0.005
-0.005
-0.005
-0.005
-0.005
-0.005
-0.005
-0.005
-0.005
-0.005
-0.005
-0.005
-0.005
-0.005
-0.005
-0.005
-0.005
-0.005
-0.005
-0.005
-0.005
-0.005
-0.005
-0.005
-0.005
-0.005
-0.005
-0.005
-0.005
-0.005
-0.005
-0.005
-0.005
-0.005
-0.005
-0.005
-0.005
-0.005
-0.005
-0.005
-0.005
-0.005
-0.005
-0.005
-0.005
-0.005
-0.005
-0.005
-0.005
-0.005
-0.005
-0.005
-0.005
-0.005
-0.005
-0.005
-0.005
-0.005
-0.005
-0.005
-0.005
-0.005
-0.005
-0.005
-0.005
-0.005
-0.005
-0.005
-0.005
-0.005
-0.005
-0.005
-0.005
-0.005
-0.005
-0.005
-0.005
-0.005
-0.005
-0.005
-0.005
-0.005
-0.005
-0.005
-0.005
-0.005
-0.005
-0.005
-0.005
-0.005
-0.005
-0.005
-0.005
-0.005
-0.005
-0.005
-0.005
-0.005
-0.005
-0.005
-0.005
-0.005
-0.005
-0.005
-0.005
-0.005
-0.005
-0.005
-0.005
-0.005
-0.005
-0.005
-0.005
-0.005
-0.005
-0.005
-0.005
-0.005
-0.005
-0.005
-0.005
-0.005
-0.005
-0.005
-0.005
-0.005
-0.005
-0.005
-0.005
-0.005
-0.005
-0.005
-0.005